<VTKFile type="UnstructuredGrid" version="1.0" byte_order="LittleEndian" header_type="UInt64">
<UnstructuredGrid>
<Piece NumberOfPoints="416" NumberOfCells="726">
<Points>
<DataArray NumberOfComponents="3" type="Float64">
0.4166666666666667 0.08333333333333333 0.0
0.4583333333333334 0.1875 0.0
0.375 0.1875 0.0
0.3333333333333334 0.125 0.0
0.1 0.125 0.0
0.05 0.25 0.0
-0.05 0.25 0.0
-0.1 0.125 0.0
-0.375 0.125 0.0
-0.5 0.0 0.0
-0.375 -0.125 0.0
0.3333333333333334 -0.125 0.0
0.375 -0.1875 0.0
0.4583333333333334 -0.1875 0.0
0.4166666666666667 -0.08333333333333333 0.0
0.5 0.0 0.0
0.0 -0.5 0.0
-1.0 0.0 0.0
0.0 0.5 0.0
1.0 0.0 0.0
-0.4375000000900576 0.10825317542106 0.0
-0.4832531755531322 0.06249999986130188 0.0
0.4755922319413308 -0.05892556492309381 0.0
-0.48325317537059 -0.06250000017747431 0.0
-0.4374999998186431 -0.1082531755777613 0.0
0.4374999999999417 0.1354166666665209 0.0
0.475592231626015 0.05892556523840958 0.0
0.4166666666668185 0.1875 0.0
0.255555555555794 0.125 0.0
0.1777777777779799 0.125 0.0
0.07500000000000935 0.1874999999999766 0.0
1.327965515329765e-13 0.25 0.0
-0.07499999999999066 0.1875000000000234 0.0
-0.1687499999998551 0.125 0.0
-0.237499999999683 0.125 0.0
-0.3062499999998145 0.125 0.0
-0.07567288965876867 -0.4985663480848592 0.0
-0.1512359926024147 -0.494248842826557 0.0
-0.2265738720000193 -0.4869969919124036 0.0
-0.3015591007622294 -0.4767237430492307 0.0
-0.3760443783037201 -0.4633008270946019 0.0
-0.4498519524490352 -0.4465515706158111 0.0
-0.5227584340059916 -0.4262404308825019 0.0
-0.5944718976224903 -0.4020581932186918 0.0
-0.664595854179552 -0.3736015091669705 0.0
-0.7325700592821647 -0.3403458198080762 0.0
-0.7975701219308106 -0.3016131216489397 0.0
-0.8583329098357162 -0.2565465922074159 0.0
-0.9128562510004017 -0.2041405551387891 0.0
-0.9579406953547912 -0.1434831211181121 0.0
-0.9888117568489952 -0.07458436417440907 0.0
-0.9888117567064731 0.0745843646467852 0.0
-0.9579406948352347 0.1434831219852944 0.0
-0.9128562499756516 0.2041405562843837 0.0
-0.8583329082646626 0.2565465935214918 0.0
-0.7975701198634039 0.3016131230156752 0.0
-0.7325700566584669 0.3403458212199065 0.0
-0.664595851363257 0.3736015104194399 0.0
-0.5944718952458683 0.4020581940971932 0.0
-0.5227584318830798 0.4262404315334079 0.0
-0.4498519506082704 0.4465515710794035 0.0
-0.3760443767855125 0.4633008274026703 0.0
-0.3015590995607588 0.4767237432392329 0.0
-0.2265738710674889 0.4869969920208679 0.0
-0.1512359920033709 0.4942488428723825 0.0
-0.07567288936805958 0.4985663480958902 0.0
0.07567288964780054 0.4985663480852753 0.0
0.1512359926058774 0.4942488428262921 0.0
0.2265738720327234 0.4869969919085997 0.0
0.3015591008232971 0.4767237430395733 0.0
0.3760443783666521 0.463300827081832 0.0
0.4498519525027346 0.4465515706022871 0.0
0.5227584340693409 0.4262404308630784 0.0
0.5944718977298385 0.4020581931790113 0.0
0.6645958539646284 0.3736015092625518 0.0
0.7325700591633628 0.3403458198720043 0.0
0.7975701218204679 0.3016131217218856 0.0
0.8583329097726942 0.2565465922601293 0.0
0.9128562509683862 0.2041405551745799 0.0
0.9579406953394916 0.1434831211436484 0.0
0.9888117568452457 0.07458436418683675 0.0
0.9888117567117153 -0.07458436462941084 0.0
0.9579406948433996 -0.1434831219716667 0.0
0.9128562499870003 -0.2041405562716968 0.0
0.8583329082323253 -0.2565465935485397 0.0
0.7975701197407945 -0.3016131230967308 0.0
0.7325700565168193 -0.3403458212961282 0.0
0.664595851215978 -0.3736015104849382 0.0
0.5944718952218354 -0.4020581941060769 0.0
0.5227584318365133 -0.4262404315476858 0.0
0.4498519505615838 -0.4465515710911614 0.0
0.376044376743319 -0.463300827411232 0.0
0.3015590995270914 -0.4767237432445571 0.0
0.226573871056492 -0.4869969920221469 0.0
0.1512359919955031 -0.4942488428729844 0.0
0.07567288935647533 -0.4985663480963298 0.0
-0.2962962962965071 -0.125 0.0
-0.217592592593022 -0.125 0.0
-0.1388888888895593 -0.125 0.0
-0.06018518518609245 -0.125 0.0
0.01851851851756536 -0.125 0.0
0.09722222222146654 -0.125 0.0
0.1759259259253787 -0.125 0.0
0.2546296296292584 -0.125 0.0
0.4166666666665149 -0.1875 0.0
0.4375000000000946 -0.1354166666669031 0.0
0.7611890210472306 0.00230518309226134 0.0
-0.75 -0.0006293717835082777 0.0
0.6403592825305533 -0.1526198985409686 0.0
0.634152633048344 0.1542637488092532 0.0
0.2292232777064936 -0.3062385152424864 0.0
0.2347663743323087 0.3078122469542829 0.0
-0.2225582680519128 0.3057124020779071 -0.0
-0.6483807047897061 0.1651091487481439 -0.0
-0.6445479840124703 -0.1629169452906297 0.0
0.4049650919209606 -0.3330159372374984 0.0
0.4049607882918894 0.3330084715823109 0.0
-0.04151859653754345 -0.3022555553844067 0.0
-0.4487439694257665 -0.2672686049329595 0.0
-0.4390088832823901 0.2761439654486848 -0.0
-0.2639573536501942 -0.3045215940063859 0.0
0.5754647888616081 -0.2708402823162051 0.0
0.5753678338470671 0.2708787239809297 0.0
0.01125788697180206 0.361783704705348 0.0
-0.1163677570007102 0.3846428622928822 -0.0
0.7752805906242074 -0.1514239329858016 0.0
0.7804813752536879 0.1412082832423951 0.0
0.6250516669798678 -0.02020854902096222 0.0
-0.7836124047809523 0.1298849771774138 -0.0
-0.785171131473955 -0.1366289362483256 0.0
-0.6219913660365429 0.0335223189525723 -0.0
0.1039227293791275 -0.3564880365983977 0.0
0.1269606130519228 0.3307602328657681 0.0
-0.5645757883915997 0.2827048399904443 -0.0
-0.5648583786138124 -0.2825335429613693 0.0
0.5387316290495237 -0.1353347784454385 0.0
0.5295212849295736 0.131736611951604 0.0
-0.3312005549813053 0.2444405689325762 -0.0
0.8696059032445856 -0.05015889419419119 0.0
0.4783741496651042 -0.2749144513262625 0.0
0.478295092170712 0.2748936527960598 0.0
-0.872366134763211 0.0474804198063967 -0.0
-0.1487387035187855 -0.3664188728504546 0.0
-0.5363022194549463 0.16130221911409 -0.0
-0.5305899957504194 -0.1644502028879759 0.0
0.6832421801371674 0.2477662806475827 0.0
0.6858210267205749 -0.247724516075694 0.0
-0.5820170511446712 -0.06548538634759128 0.0
-0.3238064595945707 0.3606393913617041 -0.0
0.8659655967747717 0.06606695861749398 0.0
0.3177177885995995 0.2521479522698585 0.0
0.3178761482137591 -0.2522302731132382 0.0
0.05226645164851949 -0.2389596820635196 0.0
-0.1564494614273883 -0.2428482329796151 0.0
-0.3518905596778462 -0.2287117129637987 0.0
-0.8687998526031403 -0.07160892502156146 0.0
-0.1389177314432311 0.25801713556516 -0.0
-0.3728156211575493 -0.3463821142504033 0.0
0.5964340194945732 0.06661780525264988 0.0
0.1654958763948508 0.2333969417835352 0.0
0.3962090048326347 -0.2520830236783213 0.0
0.3960985187096871 0.2523577130728756 0.0
0.6871548664806509 0.07210106287537243 0.0
0.3103472033730963 0.364472964566561 0.0
0.3098144855027448 -0.3643313712824942 0.0
0.6986035560587001 -0.07621382458691119 0.0
-0.6884337544281599 -0.06770019609685254 0.0
-0.7345115330066835 0.2227309670190723 -0.0
-0.731770326250074 -0.2236001464758036 0.0
0.5405264137108595 0.2195609251785633 0.0
0.5342253985240355 -0.2126497020762779 0.0
-0.0276025011198617 0.3220033131983595 -0.0
0.1744520300309086 -0.2453670617596068 0.0
-0.718917245340581 0.09934609097549535 -0.0
-0.2023202819059551 0.3861352635704551 -0.0
-0.2305980269396667 0.2109635576092754 -0.0
0.03892574495432039 -0.3950078301633102 0.0
0.4746749557745739 0.3743625796976142 0.0
0.4747561613994087 -0.3743786200769002 0.0
0.2055341537492193 0.4062567986514466 0.0
-0.4199918066241206 0.1796686804889295 -0.0
0.1887422390393098 -0.3815839785249258 0.0
0.2811590840976294 0.185852002371031 0.0
0.2832880313157226 -0.1847708998838185 0.0
0.1085763211402728 0.4366577248863631 0.0
0.5520617628328267 -0.05192439872582272 0.0
-0.4156657222778487 0.3612881741708288 -0.0
-0.07042673275906196 -0.2313476028366207 0.0
-0.2598548459569034 -0.4020128296929011 0.0
-0.4565645915576758 -0.1910343502074362 0.0
-0.5140375748926671 0.3450142352738508 -0.0
-0.5034085570250177 -0.3409150579969857 0.0
0.7610304230172902 -0.2228740464936949 0.0
-0.2731506441593949 -0.2097191644210738 0.0
0.7559614824566947 0.2232927141127733 0.0
-0.6699367753388554 0.2944841129608244 -0.0
-0.04316109626891233 0.4222609420269708 -0.0
-0.5690469269907896 0.08537757174549525 -0.0
-0.6683663395192694 -0.291382739607334 0.0
-0.0768684159877484 -0.4073500512309318 0.0
-0.8861338093858393 0.1272392080106917 -0.0
0.8848314459294793 -0.1304519865068972 0.0
0.5950973444775881 -0.2015860800832628 0.0
0.5981865692017105 0.2113728767292427 0.0
0.5211511730420882 -0.3170427053417137 0.0
0.5210241245764734 0.3170494683175695 0.0
-0.08295330423293207 0.3022370017166559 -0.0
0.06215687854339905 0.3174313757086662 0.0
0.7021199398476132 0.1719233626006437 0.0
0.7104914546741624 -0.1671126886449494 0.0
-0.521882854238042 0.2197223791863322 -0.0
0.8623374750072287 0.1430235636499997 0.0
0.6334318952469441 0.3063662547601789 0.0
0.6334303361695559 -0.306426389577828 0.0
0.7880069909869828 0.0694607001311819 0.0
0.7924553414472618 -0.05310360159985927 0.0
0.9224265131557651 0.01245848607245478 0.0
0.4374805857492374 -0.2310380795859832 0.0
0.4375000000000759 0.2302050470065463 0.0
-0.799397290571939 -0.05823947218977264 0.0
-0.5155408283445522 -0.2324631501064303 0.0
0.5759745745229344 0.01772887832891882 0.0
-0.7993282068002263 0.05486014601350996 -0.0
0.4044384031358742 -0.396789502644365 0.0
0.4044393706920718 0.3967843275152274 0.0
0.6148472236601751 -0.08837921114650948 0.0
-0.8634143920440956 -0.1459486174930885 0.0
-0.9247861336160434 -0.0162356908210817 0.0
-0.4449974867941012 -0.3759203414135194 0.0
0.5379042284393267 0.07052066782373859 0.0
0.1056241884021918 0.2747833229397656 0.0
-0.5687809832154396 -0.002782454665456206 0.0
0.4824006776690531 -0.139540620755825 0.0
0.482473424510368 0.1408030551562898 0.0
-0.3787603083943822 0.3018792506204193 -0.0
-0.1589797125291649 0.3176365721429232 -0.0
-0.1151685410031994 -0.2990959199018493 0.0
-0.681113413022859 -0.009408176481328426 0.0
0.4881389873237506 -0.2247317566475943 0.0
0.4860267550808711 0.227444241132586 0.0
0.2388177149244842 0.2514002759351371 0.0
-0.2706932095165532 0.4120278673690143 -0.0
[...]
<PointData Scalars="solution">
<DataArray type="Float64" Name="Real part" format="ascii">
0.04
0.09
0.04
0.24
0.05
0.1
0.05
0.27
0.13
0.12
0.71
0.04
0.09
0.04
0.08
0.5
0.96
0.21
0.95
0.26
0.04
0.96
0.96
0.05
0.88
0.04
0.06
0.16
0.08
0.1
0.07
0.07
0.1
0.07
0.06
0.23
0.18
0.25
0.32
0.44
0.54
0.62
0.69
0.8
0.9
0.98
1.04
1.1
1.14
1.17
1.18
1.17
1.11
1.06
0.88
0.83
0.74
0.67
0.56
0.43
0.34
0.33
0.23
0.14
0.08
0.07
0.21
0.27
0.31
0.4
0.48
0.57
0.72
0.81
0.88
0.98
1.07
1.15
1.2
1.24
1.24
1.19
1.11
1.04
0.83
0.78
0.67
0.45
0.41
0.32
0.33
0.3
0.23
0.16
0.08
0.28
0.08
0.08
0.08
0.08
0.07
0.08
0.08
0.16
0.02
0.32
0.98
0.73
0.38
0.3
0.13
0.49
0.54
0.52
0.52
0.21
0.38
0.36
0.29
0.18
0.8
0.27
0.34
0.18
0.8
0.7
0.73
1.21
0.81
0.76
0.43
0.1
0.73
0.47
0.61
0.15
0.76
1.11
0.62
0.16
1.19
0.36
0.43
0.25
0.95
0.72
0.98
0.2
1.01
0.5
0.07
0.29
0.17
0.21
0.55
0.33
0.27
0.77
0.32
0.21
0.09
0.3
0.33
0.2
0.49
1.06
0.72
0.76
0.46
0.35
0.52
0.16
0.9
0.35
0.19
0.25
0.5
0.42
0.27
0.65
0.55
0.2
0.05
0.21
0.45
0.89
0.23
0.16
0.37
0.23
0.4
0.84
0.66
1.03
0.67
0.36
0.6
0.39
0.25
0.8
0.8
0.74
0.29
0.42
0.22
0.39
0.1
0.6
0.69
0.93
1.16
0.82
0.66
0.5
0.84
0.89
0.64
0.1
1.2
0.65
0.78
1.24
0.49
0.27
0.52
1.31
1.09
0.63
0.63
0.36
0.71
0.85
0.07
0.83
0.19
0.07
0.55
0.67
0.13
0.2
0.55
0.27
0.95
0.96
0.65
0.49
0.64
0.78
0.4
0.83
0.44
0.11
0.82
0.46
0.08
0.25
0.56
0.39
0.27
0.35
0.45
0.96
0.48
0.38
0.21
0.5
0.16
0.17
0.38
0.56
0.24
0.73
0.61
0.76
0.23
0.27
0.52
0.87
0.59
1.28
0.84
0.44
1.19
0.77
0.27
0.38
0.13
0.26
0.61
0.64
0.8
0.55
0.27
0.85
0.16
0.96
0.6
0.94
0.72
0.3
0.09
0.28
0.18
0.54
0.62
0.85
0.36
0.53
0.26
0.27
0.53
0.79
0.65
1.05
0.32
0.39
0.69
0.85
1.14
0.33
0.08
0.13
0.16
0.1
0.1
0.47
0.97
0.92
0.72
0.03
0.41
0.35
0.65
0.82
0.91
0.42
0.5
0.21
0.45
0.2
0.13
1.09
0.57
0.26
0.95
0.13
0.19
0.35
0.31
0.86
0.36
0.55
0.62
0.76
0.4
0.25
0.44
0.88
0.46
0.38
0.3
0.35
0.13
0.3
0.19
0.54
0.4
0.9
0.48
0.17
0.58
0.29
0.93
0.91
0.52
0.29
0.45
0.6
0.63
0.6
0.57
0.21
0.89
1.26
0.83
0.45
0.91
0.65
0.81
0.76
1.05
0.69
0.32
0.85
0.85
0.31
0.78
0.62
0.44
1.13
0.74
1.16
0.88
0.79
0.68
0.52
0.72
0.73
0.64
0.56
1.11
0.19
0.17
0.57
0.58
0.51
</DataArray>
<DataArray type="Float64" Name="Imag part" format="ascii">
0.0
0.0
0.0
0.0
0.0
0.0
0.0
0.0
0.0
0.0
0.0
0.0
0.0
0.0
0.0
0.0
0.0
0.0
0.0
0.0
0.0
0.0
0.0
0.0
0.0
0.0
0.0
0.0
0.0
0.0
0.0
0.0
0.0
0.0
0.0
0.0
0.0
0.0
0.0
0.0
0.0
0.0
0.0
0.0
0.0
0.0
0.0
0.0
0.0
0.0
0.0
0.0
0.0
0.0
0.0
0.0
0.0
0.0
0.0
0.0
0.0
0.0
0.0
0.0
0.0
0.0
0.0
0.0
0.0
0.0
0.0
0.0
0.0
0.0
0.0
0.0
0.0
0.0
0.0
0.0
0.0
0.0
0.0
0.0
0.0
0.0
0.0
0.0
0.0
0.0
0.0
0.0
0.0
0.0
0.0
0.0
0.0
0.0
0.0
0.0
0.0
0.0
0.0
0.0
0.0
0.0
0.0
0.0
0.0
0.0
0.0
0.0
0.0
0.0
0.0
0.0
0.0
0.0
0.0
0.0
0.0
0.0
0.0
0.0
0.0
0.0
0.0
0.0
0.0
0.0
0.0
0.0
0.0
0.0
0.0
0.0
0.0
0.0
0.0
0.0
0.0
0.0
0.0
0.0
0.0
0.0
0.0
0.0
0.0
0.0
0.0
0.0
0.0
0.0
0.0
0.0
0.0
0.0
0.0
0.0
0.0
0.0
0.0
0.0
0.0
0.0
0.0
0.0
0.0
0.0
0.0
0.0
0.0
0.0
0.0
0.0
0.0
0.0
0.0
0.0
0.0
0.0
0.0
0.0
0.0
0.0
0.0
0.0
0.0
0.0
0.0
0.0
0.0
0.0
0.0
0.0
0.0
0.0
0.0
0.0
0.0
0.0
0.0
0.0
0.0
0.0
0.0
0.0
0.0
0.0
0.0
0.0
0.0
0.0
0.0
0.0
0.0
0.0
0.0
0.0
0.0
0.0
0.0
0.0
0.0
0.0
0.0
0.0
0.0
0.0
0.0
0.0
0.0
0.0
0.0
0.0
0.0
0.0
0.0
0.0
0.0
0.0
0.0
0.0
0.0
0.0
0.0
0.0
0.0
0.0
0.0
0.0
0.0
0.0
0.0
0.0
0.0
0.0
0.0
0.0
0.0
0.0
0.0
0.0
0.0
0.0
0.0
0.0
0.0
0.0
0.0
0.0
0.0
0.0
0.0
0.0
0.0
0.0
0.0
0.0
0.0
0.0
0.0
0.0
0.0
0.0
0.0
0.0
0.0
0.0
0.0
0.0
0.0
0.0
0.0
0.0
0.0
0.0
0.0
0.0
0.0
0.0
0.0
0.0
0.0
0.0
0.0
0.0
0.0
0.0
0.0
0.0
0.0
0.0
0.0
0.0
0.0
0.0
0.0
0.0
0.0
0.0
0.0
0.0
0.0
0.0
0.0
0.0
0.0
0.0
0.0
0.0
0.0
0.0
0.0
0.0
0.0
0.0
0.0
0.0
0.0
0.0
0.0
0.0
0.0
0.0
0.0
0.0
0.0
0.0
0.0
0.0
0.0
0.0
0.0
0.0
0.0
0.0
0.0
0.0
0.0
0.0
0.0
0.0
0.0
0.0
0.0
0.0
0.0
0.0
0.0
0.0
0.0
0.0
0.0
0.0
0.0
0.0
0.0
0.0
0.0
0.0
0.0
0.0
0.0
0.0
0.0
0.0
0.0
0.0
0.0
0.0
0.0
0.0
0.0
0.0
0.0
0.0
0.0
0.0
0.0
0.0
0.0
0.0
0.0
0.0
0.0
0.0
0.0
0.0
0.0
0.0
0.0
0.0
0.0
0.0
</DataArray>
</PointData>
</Piece>
</UnstructuredGrid>
</VTKFile>
