<VTKFile type="UnstructuredGrid" version="1.0" byte_order="LittleEndian" header_type="UInt64">
<UnstructuredGrid>
<Piece NumberOfPoints="416" NumberOfCells="726">
<Points>
<DataArray NumberOfComponents="3" type="Float64">
0.4166666666666667 0.08333333333333333 0.0
0.4583333333333334 0.1875 0.0
0.375 0.1875 0.0
0.3333333333333334 0.125 0.0
0.1 0.125 0.0
0.05 0.25 0.0
-0.05 0.25 0.0
-0.1 0.125 0.0
-0.375 0.125 0.0
-0.5 0.0 0.0
-0.375 -0.125 0.0
0.3333333333333334 -0.125 0.0
0.375 -0.1875 0.0
0.4583333333333334 -0.1875 0.0
0.4166666666666667 -0.08333333333333333 0.0
0.5 0.0 0.0
0.0 -0.5 0.0
-1.0 0.0 0.0
0.0 0.5 0.0
1.0 0.0 0.0
-0.4375000000900576 0.10825317542106 0.0
-0.4832531755531322 0.06249999986130188 0.0
0.4755922319413308 -0.05892556492309381 0.0
-0.48325317537059 -0.06250000017747431 0.0
-0.4374999998186431 -0.1082531755777613 0.0
0.4374999999999417 0.1354166666665209 0.0
0.475592231626015 0.05892556523840958 0.0
0.4166666666668185 0.1875 0.0
0.255555555555794 0.125 0.0
0.1777777777779799 0.125 0.0
0.07500000000000935 0.1874999999999766 0.0
1.327965515329765e-13 0.25 0.0
-0.07499999999999066 0.1875000000000234 0.0
-0.1687499999998551 0.125 0.0
-0.237499999999683 0.125 0.0
-0.3062499999998145 0.125 0.0
-0.07567288965876867 -0.4985663480848592 0.0
-0.1512359926024147 -0.494248842826557 0.0
-0.2265738720000193 -0.4869969919124036 0.0
-0.3015591007622294 -0.4767237430492307 0.0
-0.3760443783037201 -0.4633008270946019 0.0
-0.4498519524490352 -0.4465515706158111 0.0
-0.5227584340059916 -0.4262404308825019 0.0
-0.5944718976224903 -0.4020581932186918 0.0
-0.664595854179552 -0.3736015091669705 0.0
-0.7325700592821647 -0.3403458198080762 0.0
-0.7975701219308106 -0.3016131216489397 0.0
-0.8583329098357162 -0.2565465922074159 0.0
-0.9128562510004017 -0.2041405551387891 0.0
-0.9579406953547912 -0.1434831211181121 0.0
-0.9888117568489952 -0.07458436417440907 0.0
-0.9888117567064731 0.0745843646467852 0.0
-0.9579406948352347 0.1434831219852944 0.0
-0.9128562499756516 0.2041405562843837 0.0
-0.8583329082646626 0.2565465935214918 0.0
-0.7975701198634039 0.3016131230156752 0.0
-0.7325700566584669 0.3403458212199065 0.0
-0.664595851363257 0.3736015104194399 0.0
-0.5944718952458683 0.4020581940971932 0.0
-0.5227584318830798 0.4262404315334079 0.0
-0.4498519506082704 0.4465515710794035 0.0
-0.3760443767855125 0.4633008274026703 0.0
-0.3015590995607588 0.4767237432392329 0.0
-0.2265738710674889 0.4869969920208679 0.0
-0.1512359920033709 0.4942488428723825 0.0
-0.07567288936805958 0.4985663480958902 0.0
0.07567288964780054 0.4985663480852753 0.0
0.1512359926058774 0.4942488428262921 0.0
0.2265738720327234 0.4869969919085997 0.0
0.3015591008232971 0.4767237430395733 0.0
0.3760443783666521 0.463300827081832 0.0
0.4498519525027346 0.4465515706022871 0.0
0.5227584340693409 0.4262404308630784 0.0
0.5944718977298385 0.4020581931790113 0.0
0.6645958539646284 0.3736015092625518 0.0
0.7325700591633628 0.3403458198720043 0.0
0.7975701218204679 0.3016131217218856 0.0
0.8583329097726942 0.2565465922601293 0.0
0.9128562509683862 0.2041405551745799 0.0
0.9579406953394916 0.1434831211436484 0.0
0.9888117568452457 0.07458436418683675 0.0
0.9888117567117153 -0.07458436462941084 0.0
0.9579406948433996 -0.1434831219716667 0.0
0.9128562499870003 -0.2041405562716968 0.0
0.8583329082323253 -0.2565465935485397 0.0
0.7975701197407945 -0.3016131230967308 0.0
0.7325700565168193 -0.3403458212961282 0.0
0.664595851215978 -0.3736015104849382 0.0
0.5944718952218354 -0.4020581941060769 0.0
0.5227584318365133 -0.4262404315476858 0.0
0.4498519505615838 -0.4465515710911614 0.0
0.376044376743319 -0.463300827411232 0.0
0.3015590995270914 -0.4767237432445571 0.0
0.226573871056492 -0.4869969920221469 0.0
0.1512359919955031 -0.4942488428729844 0.0
0.07567288935647533 -0.4985663480963298 0.0
-0.2962962962965071 -0.125 0.0
-0.217592592593022 -0.125 0.0
-0.1388888888895593 -0.125 0.0
-0.06018518518609245 -0.125 0.0
0.01851851851756536 -0.125 0.0
0.09722222222146654 -0.125 0.0
0.1759259259253787 -0.125 0.0
0.2546296296292584 -0.125 0.0
0.4166666666665149 -0.1875 0.0
0.4375000000000946 -0.1354166666669031 0.0
0.7611890210472306 0.00230518309226134 0.0
-0.75 -0.0006293717835082777 0.0
0.6403592825305533 -0.1526198985409686 0.0
0.634152633048344 0.1542637488092532 0.0
0.2292232777064936 -0.3062385152424864 0.0
0.2347663743323087 0.3078122469542829 0.0
-0.2225582680519128 0.3057124020779071 -0.0
-0.6483807047897061 0.1651091487481439 -0.0
-0.6445479840124703 -0.1629169452906297 0.0
0.4049650919209606 -0.3330159372374984 0.0
0.4049607882918894 0.3330084715823109 0.0
-0.04151859653754345 -0.3022555553844067 0.0
-0.4487439694257665 -0.2672686049329595 0.0
-0.4390088832823901 0.2761439654486848 -0.0
-0.2639573536501942 -0.3045215940063859 0.0
0.5754647888616081 -0.2708402823162051 0.0
0.5753678338470671 0.2708787239809297 0.0
0.01125788697180206 0.361783704705348 0.0
-0.1163677570007102 0.3846428622928822 -0.0
0.7752805906242074 -0.1514239329858016 0.0
0.7804813752536879 0.1412082832423951 0.0
0.6250516669798678 -0.02020854902096222 0.0
-0.7836124047809523 0.1298849771774138 -0.0
-0.785171131473955 -0.1366289362483256 0.0
-0.6219913660365429 0.0335223189525723 -0.0
0.1039227293791275 -0.3564880365983977 0.0
0.1269606130519228 0.3307602328657681 0.0
-0.5645757883915997 0.2827048399904443 -0.0
-0.5648583786138124 -0.2825335429613693 0.0
0.5387316290495237 -0.1353347784454385 0.0
0.5295212849295736 0.131736611951604 0.0
-0.3312005549813053 0.2444405689325762 -0.0
0.8696059032445856 -0.05015889419419119 0.0
0.4783741496651042 -0.2749144513262625 0.0
0.478295092170712 0.2748936527960598 0.0
-0.872366134763211 0.0474804198063967 -0.0
-0.1487387035187855 -0.3664188728504546 0.0
-0.5363022194549463 0.16130221911409 -0.0
-0.5305899957504194 -0.1644502028879759 0.0
0.6832421801371674 0.2477662806475827 0.0
0.6858210267205749 -0.247724516075694 0.0
-0.5820170511446712 -0.06548538634759128 0.0
-0.3238064595945707 0.3606393913617041 -0.0
0.8659655967747717 0.06606695861749398 0.0
0.3177177885995995 0.2521479522698585 0.0
0.3178761482137591 -0.2522302731132382 0.0
0.05226645164851949 -0.2389596820635196 0.0
-0.1564494614273883 -0.2428482329796151 0.0
-0.3518905596778462 -0.2287117129637987 0.0
-0.8687998526031403 -0.07160892502156146 0.0
-0.1389177314432311 0.25801713556516 -0.0
-0.3728156211575493 -0.3463821142504033 0.0
0.5964340194945732 0.06661780525264988 0.0
0.1654958763948508 0.2333969417835352 0.0
0.3962090048326347 -0.2520830236783213 0.0
0.3960985187096871 0.2523577130728756 0.0
0.6871548664806509 0.07210106287537243 0.0
0.3103472033730963 0.364472964566561 0.0
0.3098144855027448 -0.3643313712824942 0.0
0.6986035560587001 -0.07621382458691119 0.0
-0.6884337544281599 -0.06770019609685254 0.0
-0.7345115330066835 0.2227309670190723 -0.0
-0.731770326250074 -0.2236001464758036 0.0
0.5405264137108595 0.2195609251785633 0.0
0.5342253985240355 -0.2126497020762779 0.0
-0.0276025011198617 0.3220033131983595 -0.0
0.1744520300309086 -0.2453670617596068 0.0
-0.718917245340581 0.09934609097549535 -0.0
-0.2023202819059551 0.3861352635704551 -0.0
-0.2305980269396667 0.2109635576092754 -0.0
0.03892574495432039 -0.3950078301633102 0.0
0.4746749557745739 0.3743625796976142 0.0
0.4747561613994087 -0.3743786200769002 0.0
0.2055341537492193 0.4062567986514466 0.0
-0.4199918066241206 0.1796686804889295 -0.0
0.1887422390393098 -0.3815839785249258 0.0
0.2811590840976294 0.185852002371031 0.0
0.2832880313157226 -0.1847708998838185 0.0
0.1085763211402728 0.4366577248863631 0.0
0.5520617628328267 -0.05192439872582272 0.0
-0.4156657222778487 0.3612881741708288 -0.0
-0.07042673275906196 -0.2313476028366207 0.0
-0.2598548459569034 -0.4020128296929011 0.0
-0.4565645915576758 -0.1910343502074362 0.0
-0.5140375748926671 0.3450142352738508 -0.0
-0.5034085570250177 -0.3409150579969857 0.0
0.7610304230172902 -0.2228740464936949 0.0
-0.2731506441593949 -0.2097191644210738 0.0
0.7559614824566947 0.2232927141127733 0.0
-0.6699367753388554 0.2944841129608244 -0.0
-0.04316109626891233 0.4222609420269708 -0.0
-0.5690469269907896 0.08537757174549525 -0.0
-0.6683663395192694 -0.291382739607334 0.0
-0.0768684159877484 -0.4073500512309318 0.0
-0.8861338093858393 0.1272392080106917 -0.0
0.8848314459294793 -0.1304519865068972 0.0
0.5950973444775881 -0.2015860800832628 0.0
0.5981865692017105 0.2113728767292427 0.0
0.5211511730420882 -0.3170427053417137 0.0
0.5210241245764734 0.3170494683175695 0.0
-0.08295330423293207 0.3022370017166559 -0.0
0.06215687854339905 0.3174313757086662 0.0
0.7021199398476132 0.1719233626006437 0.0
0.7104914546741624 -0.1671126886449494 0.0
-0.521882854238042 0.2197223791863322 -0.0
0.8623374750072287 0.1430235636499997 0.0
0.6334318952469441 0.3063662547601789 0.0
0.6334303361695559 -0.306426389577828 0.0
0.7880069909869828 0.0694607001311819 0.0
0.7924553414472618 -0.05310360159985927 0.0
0.9224265131557651 0.01245848607245478 0.0
0.4374805857492374 -0.2310380795859832 0.0
0.4375000000000759 0.2302050470065463 0.0
-0.799397290571939 -0.05823947218977264 0.0
-0.5155408283445522 -0.2324631501064303 0.0
0.5759745745229344 0.01772887832891882 0.0
-0.7993282068002263 0.05486014601350996 -0.0
0.4044384031358742 -0.396789502644365 0.0
0.4044393706920718 0.3967843275152274 0.0
0.6148472236601751 -0.08837921114650948 0.0
-0.8634143920440956 -0.1459486174930885 0.0
-0.9247861336160434 -0.0162356908210817 0.0
-0.4449974867941012 -0.3759203414135194 0.0
0.5379042284393267 0.07052066782373859 0.0
0.1056241884021918 0.2747833229397656 0.0
-0.5687809832154396 -0.002782454665456206 0.0
0.4824006776690531 -0.139540620755825 0.0
0.482473424510368 0.1408030551562898 0.0
-0.3787603083943822 0.3018792506204193 -0.0
-0.1589797125291649 0.3176365721429232 -0.0
-0.1151685410031994 -0.2990959199018493 0.0
-0.681113413022859 -0.009408176481328426 0.0
0.4881389873237506 -0.2247317566475943 0.0
0.4860267550808711 0.227444241132586 0.0
0.2388177149244842 0.2514002759351371 0.0
-0.2706932095165532 0.4120278673690143 -0.0
[...]
<PointData Scalars="solution">
<DataArray type="Float64" Name="Real part" format="ascii">
0.46120403916318925
0.9668738037428055
-0.34663531783502566
-0.9273677030509746
0.4161468365471422
-0.5403023058681401
-0.5403023058681388
0.4161468365471428
-0.3466353178350258
0.8390715290764524
-0.3466353178350258
-0.9273677030509746
-0.34663531783502605
0.9668738037428055
0.46120403916318925
0.8390715290764524
0.3157402277594558
-0.31619021833395033
0.5271034961909293
-1.0453844249227633
0.7808456847309715
0.9712700591973157
0.9962120905808295
0.9712700600661452
0.7808456813397878
0.7808456836050212
0.9962120911292062
0.46120403916588293
-0.38824102913977193
0.9155339757654217
-0.07073720166751686
-1.0
-0.07073720166788874
0.9728839459801156
-0.03760215288164122
-0.9875147712984766
0.054168481909765295
-0.263563660176874
-0.34278208974463037
-0.12701282740677008
0.09974008575246471
0.24686724073891464
0.33336192795155684
0.30908932419649676
0.31503432942438175
0.29767550148841054
0.19419307483513124
0.04674392531380438
-0.105360236801162
-0.2447399403889963
-0.30701003892300327
-0.30070907422013
-0.2670712440995038
-0.15558864006350612
0.031130341073862748
0.18314193512757188
0.3219474100869002
0.3625117457825307
0.32573863825115457
0.24875995745941012
0.10664016584059116
-0.04352240070059388
-0.17294549343105584
-0.23685308478196265
-0.05411742855032044
0.2912559929116315
0.3184780734633
-0.17060492147389705
-0.5420299228476905
-0.31955926874555385
0.15216713044618504
0.3116523442782231
0.013367832713947569
-0.30671046334395696
-0.22742934622599842
0.24191359206094262
0.5417775557684457
0.3154754473217227
-0.20114836791345916
-0.7817288987454446
-1.0043981446112973
-1.0007515675794523
-0.8325353842276452
-0.33749376599975245
0.32207962852920385
0.5341584688840099
0.3467115462981539
-0.17954980294676745
-0.3851569694573929
-0.16265528012451694
0.171437178900587
0.1686743919581884
-0.13813004641836893
-0.3109658360134487
-0.12180388712679704
0.20999319059108632
-0.9368587570842332
0.35277687931387064
0.9345461343158206
-0.35890328043300346
-0.9321933500288946
0.365014257926915
0.9298005053290125
-0.3711095491728353
0.4612040391604956
0.780845683606931
0.7278733540173655
-0.23968102110025752
-0.8877422092396596
-0.9726981588211372
-0.16198511560141557
0.015561577743808876
0.3683786168797982
-0.39568630843727387
-0.45476336336675427
0.35049058402862215
0.06223827531458808
-0.4525459642152783
-0.4082740446491288
-0.29446738335226913
0.4348555442101193
-0.4236649635480382
-0.2437723717723113
-0.09894087566409152
-0.42674335395754665
0.6981219590876689
0.7678678468116834
-0.9747248368091769
0.28894212518222406
0.3416713294247285
-0.24645017065868313
0.4118576819430851
0.6882989024029785
-0.26188006710102874
-0.19577042617241905
0.2997368521393906
0.5388872140326777
-0.18593561228966426
0.41088225435626563
0.6368448386509239
0.6495353349810874
0.3475735659913996
-0.24894787413891079
-0.26213659285807567
-0.23928890155438046
-0.5452465471784848
-0.41845912082243697
0.10526067196225217
0.6747272492756489
0.5493518076515568
-0.5794541557889072
-0.48838853302395563
-0.07909623791647978
0.3892234434999496
-0.487485643264043
0.38088821534496986
-0.11657838982123547
0.36727107372416135
-0.6616731760780296
0.7458046234693244
0.2757964567194137
0.09465353937598846
-0.6560883251463807
-0.5959537162087849
-0.3304815867385623
-0.3522788937730825
-0.5403590078254106
0.3276459465178862
0.2911748007213663
0.29748304733797304
0.2516818839761428
-0.7214982525460267
0.4456368109050093
-0.24262184605164175
0.1231746528240306
0.22100024505580182
0.27227213026395536
0.3118952841992543
0.2671633589569204
-0.10180079517648735
-0.4012810582074131
-0.04867447125433575
-0.5072033169137495
-0.608819746718894
0.5185714425184428
0.052537383780373204
0.3966412910442655
-0.33649642888076636
0.16089861996952115
-0.38143400199052174
0.0993190959269239
0.180725673581093
0.5457378331676164
-0.08880523131275762
0.3527410234425206
0.3391828694551372
0.03197868185526108
0.1700335463852351
0.2799500090050619
-0.3070151878577237
0.19695316220399758
0.049122632479642735
-0.6179999269656604
-0.5427525377629847
0.11070556338535814
0.2642226633205113
-0.7724064588791745
0.10803937446455163
-0.4550757329181216
-0.1885946537710023
-0.5728324887255126
0.5323034872944361
-0.5510646239110176
-0.6157937468258831
0.9790220368070774
1.0163210089289547
-0.5874981912474683
0.7344173602292894
0.66825152594763
0.24089951156833372
-0.5158786914728106
-0.37014656930106504
0.2165736758777832
0.22776840900385995
0.056197475947775896
-0.8696674050174137
0.3724123535221995
0.08760051506984544
0.38505374436783985
0.3671388844437837
0.4606898662138358
0.4684897462087834
0.9554399142120241
1.01442007970457
0.18970015314822106
-0.17558476249182853
-0.18269881739498553
-0.5683143303122087
0.7692052020726202
0.8354224703124671
0.06848420602975405
0.3290532217858409
0.3248783154926526
0.4420140925297011
0.4505738930108229
-0.5209332530805961
-0.5093840117526608
-0.21857875427938195
-0.012838444250124311
0.26942075357182055
0.6468526203719873
0.05257150681402986
0.3750244277731476
-0.5182588124797884
-0.6799457516603699
-0.08239551133498656
-0.2745739159640869
-0.4463409309777255
-0.39611693611456766
-0.6851076182281598
0.5643381717584622
0.3640857049795088
1.024001285044166
0.4852256902377757
0.37287323133700956
-0.2756647074503564
-0.5141620626347733
-0.21848143558919655
-0.40899390295078397
0.26550362766552565
-0.3376833318730048
0.7714907026379628
-0.3241181126006128
-0.21272863473481546
-0.15912204149093465
-0.542876878478116
0.2492520226556287
-0.5688497282497186
0.25640868779651277
-0.12164270911776923
-0.5515013087889576
0.0330208854750568
-0.444625503909545
0.2762386240832384
0.7199354737601549
-0.6386104617825271
0.5577391113574386
0.37756116816608193
0.6200872305816649
0.22936878053859194
0.10251392491872588
-0.8400503467488964
-0.4865946315965667
-0.785233944235275
-0.4711845400910295
-0.7169022825204951
-0.6774650607841683
-0.7510805287457788
0.2564255894447121
0.6730720994388338
0.6289102735396578
0.4669611664915845
0.3222669492240915
0.43164064224486665
0.06684591439136224
-0.9974507420953291
0.3656218890002446
-0.5185719822783768
0.49587525535396876
-0.07472015668955531
0.44980348717445956
-0.012985147632267168
-0.3433890770472745
-0.5035478547221686
-0.3037196367789801
0.42148350995400713
0.30055596270089496
-0.3762561353102456
-1.0254965785914456
-0.09644043908195274
0.6379476728717156
0.5584840285796494
-0.24237621416923846
0.605705701569316
0.4405995605596604
-0.4234538231141361
0.7157271890397655
-0.0657270094639818
-0.39725505701419866
0.10040929746500452
0.18481665259286312
0.09800359026329857
0.4083801530735384
-0.5091795528231299
0.07905433625043515
0.44981835176324614
0.1529245627789656
0.4247353908781352
0.23507473845853377
-0.3672164872475361
-0.24173077188455327
0.03056618644897618
0.4000921928259812
-0.5340845398786481
0.7609736288431411
0.6923498749237981
0.7878377444071364
0.8993203937116797
0.4673350810500376
0.51954630167002
-0.61423345012692
-0.37750787349929255
0.08155116039923783
0.3558863054698384
0.28447412892172236
-0.3262700736799932
0.00012841704305122367
-0.3356196850714877
0.4444261426550791
0.32159372901403005
-0.389664535235691
-0.0711481086842471
-0.38531303917857207
0.2688994631516732
0.5543686570278965
-0.23626320739608475
-0.25292446456054435
0.05416639124005916
-0.7650099376189067
-0.08628663727031126
-0.013487770231480773
-0.18913865148520329
-0.4690718759952252
-0.09289936832609838
-0.18455903041111804
-0.8416704895820736
-0.4254366930052643
-0.2604639340279023
0.9509457827455523
-0.13150317753456925
-0.10268810299782094
-0.3831288757782088
0.45607973985226663
-0.8822660553560702
0.36229427460240543
-0.5442549095156881
-0.18078084707177156
0.231266309600156
0.8670122323206075
0.4054140765374153
0.40944864802670694
-0.8318170651837692
0.43978611487542285
0.5014112563275546
0.037452104698273196
-0.04506292690205075
0.9524890995281573
0.30945345077838027
-0.4062395180808762
-0.5441824427588354
0.9127972953081553
0.3434415251518181
0.37346233715407634
-0.18237630858271964
0.41971398896170653
0.04142655579036519
-0.18877098170434278
0.38891806337233503
0.2902615093522433
0.23479742865578226
-0.6319452883227029
0.24880913318329195
0.43019936779495893
-0.6157672415272334
0.11239134421622876
-0.3606980033824535
</DataArray>
<DataArray type="Float64" Name="Imag part" format="ascii">
0.8872941080946944
0.255254867996516
0.9379999767747393
0.37415123057122157
0.9092974268256818
0.8414709848078963
-0.8414709848078978
-0.9092974268256815
-0.9379999767747389
0.5440211108893698
-0.9379999767747389
0.37415123057122157
0.9379999767747382
0.255254867996516
0.8872941080946944
-0.5440211108893698
0.029057228703352776
-0.10280153915154061
-0.06238627282273737
0.36608997667001114
-0.6247239523477712
0.23797998257593236
-0.08695671670764195
0.23797997902997356
-0.6247239565864287
0.6247239537551024
-0.08695671042521246
0.8872941080932943
-0.9215578675766871
-0.4022406483924272
0.9974949866040677
2.6553187072599563e-12
-0.9974949866040412
0.23129381239920185
0.9992927889756164
0.1575264310118066
0.2396480256093383
0.18488131585184883
-0.0656514613648278
-0.2838479782102235
-0.3503205142084404
-0.30244978522513905
-0.1939192888414554
-0.11455608721374548
-0.14038574730519035
-0.22019507730405702
-0.3134772743752701
-0.4002522542528549
-0.32368552193763084
-0.2672457767186134
-0.15204587231416825
-0.1209695044166842
-0.20346872998344848
-0.31618329699720044
-0.3932886189519866
-0.3539309330558908
-0.2654384617439573
-0.1273173699892199
-0.035908588276084064
-0.10320209003387923
-0.32541561297985416
-0.4850000014328547
-0.4650433859313663
-0.23664963254212001
0.12835422464887633
0.17957738391912395
-0.42794706131796645
-0.43589451450608396
-0.05394376743722504
0.40198971532313343
0.40985820587956256
0.04684344055768667
-0.23048940256880127
-0.05858561655790004
0.3471412057914266
0.35610522987930937
-0.05298295104860225
-0.46721945686971633
-0.5382659632055736
-0.26567895449029916
0.19384625971960445
0.23837949565087696
-0.12464845537822326
-0.47946385774973477
-0.48790516563728425
-0.06210733129539901
0.32376395341578745
0.4318474307351714
0.084881496443305
-0.1986065193672064
-0.1359923766769762
0.14366073915573183
0.24318489197585397
0.07442631987647691
-0.1736378559825628
-0.18731420285898556
0.3497079771389057
0.9357074721415675
-0.35584199138853445
-0.9333747560837655
0.36196071356144016
0.9310019288433636
-0.3680638807189766
-0.9285890923937966
0.8872941080960947
0.6247239537527152
0.7183637889535759
0.43664525582573016
0.026007486021595572
-0.13300860523032704
-0.5674950830973862
-0.7634910863061114
0.018057372432144825
0.20978276917613245
0.1062084530926076
0.3659453535618098
0.5057675425662594
0.10986252057771763
0.2587804269342372
0.2685855351994583
0.1385420271454111
-0.7080762919829324
-0.7215154722836261
0.8659128380577006
0.12716268931654273
0.573435735949233
0.6107994418807974
-0.2055655408069545
0.3013409860295939
0.3298809940815107
-0.5440530200190442
0.07171263840249045
0.11015921061778003
0.44390668552280954
0.4166007888487897
-0.9380045268951553
-0.9187694740879072
0.6197172926746554
-1.263392582059078
-0.23838649674501053
-0.11905007379919048
-0.20850288153095148
-0.4049589253897566
-0.6045599153608624
-0.6179744709652032
0.4983326225301114
0.5616844691526075
-0.6332268288886834
0.009366831599411271
-1.073520364537262
0.049292726683182554
0.27444453748894065
0.5915318128052505
-0.40025348890753254
0.3158823286156551
-0.17319724239805775
-0.6575034597670967
0.3535257852434888
-0.6945236085621577
-0.10630366370142874
0.7186494237238439
0.7056488047224717
0.8640134848910753
-0.07222454569924076
0.08345445842925062
0.9108956155519161
0.1055349076455858
0.30572192321379466
0.36293285475405246
-0.9059245348985925
-0.8909788648292584
0.37932008933215794
-0.44719911663715495
0.3983933725782398
-0.2798485645304191
0.5648097841838788
0.3768590082722822
0.011118758783989366
-0.19388593452921496
-0.6649233992103217
-0.5790436664515697
-0.463087735096613
-0.43471367506670155
-0.31675200277549315
-0.26168965206319617
-1.0330962508693555
0.13484908022737221
-0.4503060670832227
-0.3624338088469411
-0.5396442853782305
0.35291634000663896
0.40085009635643337
0.6517050426946747
0.6285444003246168
0.6939693334926113
0.3164461307502873
0.6443461009111903
-0.6545289056527359
0.3094790479337598
0.1489758037403536
-0.3213418451726244
-0.8470177344985649
-0.7072863705323791
-0.6879444191062053
-0.5671223158156838
-0.4719769951941327
-0.3719811885098366
0.8396796954872318
0.9139886785155357
0.9313880224328365
-0.1791582751298657
-0.6629653701936352
-0.07167363886966989
0.011464762606736949
0.35148352698610635
0.11556516551086758
-1.1888172606581067
0.4547820004161683
0.4959966202163322
0.34196151757630333
-0.06676849620431495
-0.9262891732437742
0.2952655909262777
0.17313973096073515
0.41261341651196476
-0.3910484206413538
-0.25520248047798477
-0.3887708713334185
0.21245393864618303
-0.9744609051975446
0.6258172667052634
-0.5247144724511681
-0.18704545782660056
-0.20957195107885587
0.47198075547061175
-0.36089589804343003
-0.43983495791353205
-0.04275800165823469
-0.33627487313026494
-0.25950321600443205
-0.7596635368448446
-0.4324961255854043
-0.3694654741966701
0.010778143257080992
-0.03958008238917815
0.07264963878822413
0.01069202325031949
0.4569957507603018
0.4931035536776368
-0.11809725747174017
-0.22558949790362504
0.554713457530539
-0.6631107923129161
0.9812753301367254
0.1654369813921009
0.2848738214411809
-0.5288334957520647
0.6975893581140252
-0.3380849563312401
0.010710593247222094
0.3764064719360013
-0.18540455771933972
-0.48280159027686725
0.4658430069229202
-0.6237958491120817
-0.280629394191993
0.1937694491966183
0.3387863632682394
-0.10015370238300586
-0.3880148654069814
0.6492708100096088
0.3808757149410246
-0.5159883574844186
0.7465281003936172
0.4788184699779997
-0.47730327709275583
0.34927878580637917
-0.19643357775204878
0.2900408279373937
-0.7341100090302907
-0.8925421606356407
-0.3568089537582309
-0.8868563713193642
0.2116019500139737
-0.06065211287260264
0.6192790105838123
0.36815111939604983
0.46913832085225105
0.2626582697871009
0.5364497765012917
0.5320318143651324
0.12295495103074876
-0.8205059298747287
0.1832199906446419
0.1508712659160721
0.014755570808175012
-0.2703295063142261
-0.18931539574354728
0.0803180221325253
-0.6632925523793992
-0.4642762202909026
-0.6402334540092932
-0.6847350788111167
-0.6330412927073688
1.0608495676265837
0.0037472829296179323
-0.6829525582961838
0.4908236328375311
-0.5923756552383356
0.46810931814151546
-0.5425985846932616
0.5075813546116431
-0.3228364040058559
-0.24958467195086526
-0.5040261679923632
-0.2802745320898367
-0.714213879355284
-0.9059114715648409
0.01662271235577839
0.4481195186827046
0.20750757874090708
-0.07467047874874722
-0.9659661533766339
0.4175878949583322
0.20075734616496693
0.3444346483954604
-0.2560718198049682
-1.0238459495671228
-0.3637500252157141
0.8498118544586958
0.8679131880482562
0.31697537893718547
-0.06947360559474407
-0.2410656186692327
-0.3525223000106086
0.102817048754697
-0.5455585263564846
0.12750718001335754
0.6161098715148675
-0.6512402996792921
0.5524037032309735
0.620550689618832
0.13977741594425366
0.011177514159915638
-0.21430097220493663
-0.629253460877205
-0.6731472451371528
-0.4732237567866281
0.6779617701675423
0.32285315354303096
0.7422854401320241
-0.31065135194619437
0.4964117278933904
-0.2055955240543212
1.0006102252231832
0.3641703991505663
0.31178126388567734
0.0022993983106201535
0.92751770465395
0.13181575895446407
0.32474768766711354
0.24370716327967318
-0.07294767081670821
-0.05360615722140018
-0.3880083698631037
0.6780571037407048
0.3684040804264654
0.33299235318932546
0.6904668820653441
-0.9602379580659292
-0.3159141472051337
-0.3267940436715426
-0.4167231192190945
0.4717653461855663
0.4504438306758745
-0.07889618632660894
-0.16048402459457645
0.3971337299678328
0.20557148519602703
-0.0010574483169832692
0.41397722807411386
0.2719280749037125
0.06445621611353272
0.336492068375047
-0.13197996998871886
0.0270228098376759
-0.24331579147376045
-0.29479799730189443
-0.21643129506394862
0.07698638118982985
-1.1962715999099176
-0.828453761211245
0.10538031791570861
-0.06813204752201753
0.4777125848414291
-0.3551282732070888
0.13878693421964172
-0.46016543776574514
0.1816591944830443
-0.20620521880870463
-0.1979986427335815
0.9345238928594419
0.012620681193495164
0.4185409951023269
-0.07467905351217281
-0.959797001835972
0.37913382027038406
-0.0659178512057732
0.23747306058197665
0.2822860142913823
0.38983823704921966
0.36354959153820804
-0.6556046561462389
0.48807008483693626
-0.4123266078895914
0.35697752768982444
</DataArray>
</PointData>
</Piece>
</UnstructuredGrid>
</VTKFile>
